VARIABLES = "X", "Y", "Ux", "Uy", "Cp" 
ZONE I=12, J=41, F=POINT
-2.078306 -0.025000 1.000000 -0.000000 0.000000
-2.078306 0.025000 1.000000 0.000000 0.000000
-2.078306 0.087500 1.000000 0.000000 0.000000
-2.078306 0.165625 1.000000 0.000000 0.000000
-2.078306 0.263281 1.000000 0.000000 0.000000
-2.078306 0.385352 1.000000 0.000000 0.000000
-2.078306 0.537939 1.000000 0.000000 0.000000
-2.078306 0.728674 1.000000 0.000000 0.000000
-2.078306 0.967093 1.000000 0.000000 0.000000
-2.078306 1.265116 1.000000 0.000000 0.000000
-2.078306 1.637645 1.000000 0.000000 0.000000
-2.078306 2.103306 1.000000 0.000000 0.000000
-1.612645 -0.025000 0.997470 -0.000033 0.005053
-1.612645 0.025000 0.997470 0.000033 0.005053
-1.612645 0.087500 0.997481 0.000099 0.005033
-1.612645 0.165625 0.997509 0.000180 0.004975
-1.612645 0.263281 0.997569 0.000276 0.004856
-1.612645 0.385352 0.997676 0.000382 0.004642
-1.612645 0.537939 0.997853 0.000489 0.004290
-1.612645 0.728674 0.998117 0.000580 0.003761
-1.612645 0.967093 0.998479 0.000633 0.003040
-1.612645 1.265116 0.998927 0.000636 0.002145
-1.612645 1.637645 0.999435 0.000603 0.001129
-1.612645 2.103306 1.000000 0.000000 0.000000
-1.240116 -0.025000 0.996859 -0.000077 0.006272
-1.240116 0.025000 0.996859 0.000077 0.006272
-1.240116 0.087500 0.996879 0.000233 0.006233
-1.240116 0.165625 0.996934 0.000422 0.006123
-1.240116 0.263281 0.997046 0.000638 0.005899
-1.240116 0.385352 0.997241 0.000866 0.005510
-1.240116 0.537939 0.997542 0.001076 0.004909
-1.240116 0.728674 0.997956 0.001223 0.004082
-1.240116 0.967093 0.998458 0.001264 0.003080
-1.240116 1.265116 0.998992 0.001195 0.002014
-1.240116 1.637645 0.999505 0.001073 0.000990
-1.240116 2.103306 1.000000 0.000000 0.000000
-0.942093 -0.025000 0.995822 -0.000152 0.008339
-0.942093 0.025000 0.995822 0.000152 0.008339
-0.942093 0.087500 0.995866 0.000457 0.008251
-0.942093 0.165625 0.995986 0.000817 0.008012
-0.942093 0.263281 0.996222 0.001212 0.007540
-0.942093 0.385352 0.996613 0.001594 0.006761
-0.942093 0.537939 0.997167 0.001887 0.005654
-0.942093 0.728674 0.997844 0.002011 0.004304
-0.942093 0.967093 0.998545 0.001927 0.002904
-0.942093 1.265116 0.999161 0.001682 0.001674
-0.942093 1.637645 0.999633 0.001409 0.000731
-0.942093 2.103306 1.000000 0.000000 0.000000
-0.703674 -0.025000 0.994224 -0.000287 0.011519
-0.703674 0.025000 0.994224 0.000287 0.011519
-0.703674 0.087500 0.994327 0.000859 0.011313
-0.703674 0.165625 0.994601 0.001510 0.010766
-0.703674 0.263281 0.995115 0.002168 0.009741
-0.703674 0.385352 0.995896 0.002712 0.008185
-0.703674 0.537939 0.996881 0.003000 0.006219
-0.703674 0.728674 0.997917 0.002945 0.004154
-0.703674 0.967093 0.998814 0.002582 0.002363
-0.703674 1.265116 0.999448 0.002066 0.001099
-0.703674 1.637645 0.999811 0.001610 0.000376
-0.703674 2.103306 1.000000 0.000000 0.000000
-0.512939 -0.025000 0.991800 -0.000545 0.016332
-0.512939 0.025000 0.991800 0.000545 0.016332
-0.512939 0.087500 0.992054 0.001609 0.015826
-0.512939 0.165625 0.992698 0.002742 0.014544
-0.512939 0.263281 0.993800 0.003740 0.012348
-0.512939 0.385352 0.995274 0.004353 0.009410
-0.512939 0.537939 0.996871 0.004413 0.006229
-0.512939 0.728674 0.998279 0.003944 0.003423
-0.512939 0.967093 0.999278 0.003152 0.001433
-0.512939 1.265116 0.999823 0.002320 0.000350
-0.512939 1.637645 1.000011 0.001692 -0.000024
-0.512939 2.103306 1.000000 0.000000 0.000000
-0.360352 -0.025000 0.988067 -0.001061 0.023723
-0.360352 0.025000 0.988067 0.001061 0.023723
-0.360352 0.087500 0.988738 0.003050 0.022387
-0.360352 0.165625 0.990270 0.004920 0.019341
-0.360352 0.263281 0.992520 0.006194 0.014866
-0.360352 0.385352 0.995042 0.006551 0.009848
-0.360352 0.537939 0.997309 0.006004 0.005339
-0.360352 0.728674 0.998955 0.004871 0.002066
-0.360352 0.967093 0.999886 0.003570 0.000216
-0.360352 1.265116 1.000230 0.002441 -0.000466
-0.360352 1.637645 1.000206 0.001683 -0.000415
-0.360352 2.103306 1.000000 0.000000 0.000000
-0.238281 -0.025000 0.982064 -0.002184 0.035546
-0.238281 0.025000 0.982064 0.002184 0.035546
-0.238281 0.087500 0.984037 0.005912 0.031637
-0.238281 0.165625 0.987620 0.008651 0.024533
-0.238281 0.263281 0.991780 0.009705 0.016279
-0.238281 0.385352 0.995520 0.009142 0.008856
-0.238281 0.537939 0.998259 0.007543 0.003422
-0.238281 0.728674 0.999871 0.005593 0.000226
-0.238281 0.967093 1.000551 0.003805 -0.001117
-0.238281 1.265116 1.000621 0.002451 -0.001249
-0.238281 1.637645 1.000379 0.001617 -0.000760
-0.238281 2.103306 1.000000 0.000000 0.000000
-0.140625 -0.025000 0.971655 -0.004915 0.055863
-0.140625 0.025000 0.971655 0.004915 0.055863
-0.140625 0.087500 0.978058 0.011731 0.043265
-0.140625 0.165625 0.985729 0.014599 0.028124
-0.140625 0.263281 0.992258 0.014095 0.015226
-0.140625 0.385352 0.996874 0.011734 0.006105
-0.140625 0.537939 0.999622 0.008789 0.000678
-0.140625 0.728674 1.000897 0.006044 -0.001832
-0.140625 0.967093 1.001195 0.003877 -0.002407
-0.140625 1.265116 1.000966 0.002385 -0.001938
-0.140625 1.637645 1.000522 0.001520 -0.001047
-0.140625 2.103306 1.000000 0.000000 0.000000
-0.062500 -0.025000 0.951786 -0.012190 0.093955
-0.062500 0.025000 0.951786 0.012190 0.093955
-0.062500 0.087500 0.973201 0.023506 0.052327
-0.062500 0.165625 0.986391 0.022850 0.026512
-0.062500 0.263281 0.994404 0.018620 0.010814
-0.062500 0.385352 0.998963 0.013855 0.001881
-0.062500 0.537939 1.001186 0.009604 -0.002466
-0.062500 0.728674 1.001904 0.006237 -0.003850
-0.062500 0.967093 1.001767 0.003828 -0.003552
-0.062500 1.265116 1.001252 0.002275 -0.002510
-0.062500 1.637645 1.000636 0.001414 -0.001275
-0.062500 2.103306 1.000000 0.000000 0.000000
0.000000 -0.025000 0.955646 0.123872 0.071396
0.000000 0.025000 0.955646 0.076128 0.080944
0.000000 0.087500 0.978482 0.046336 0.040425
0.000000 0.165625 0.991100 0.031561 0.016724
0.000000 0.263281 0.997956 0.022141 0.003594
0.000000 0.385352 1.001402 0.015207 -0.003038
0.000000 0.537939 1.002733 0.009994 -0.005574
0.000000 0.728674 1.002805 0.006235 -0.005657
0.000000 0.967093 1.002246 0.003706 -0.004511
0.000000 1.265116 1.001480 0.002147 -0.002967
0.000000 1.637645 1.000724 0.001310 -0.001451
0.000000 2.103306 1.000000 0.000000 0.000000
0.050000 -0.025000 0.991498 0.104974 0.005912
0.050000 0.025000 0.991498 0.075026 0.011302
0.050000 0.087500 0.994192 0.051869 0.008891
0.050000 0.165625 0.998979 0.035313 0.000794
0.050000 0.263281 1.002414 0.023895 -0.005404
0.050000 0.385352 1.004039 0.015812 -0.008344
0.050000 0.537939 1.004262 0.010063 -0.008643
0.050000 0.728674 1.003642 0.006109 -0.007335
0.050000 0.967093 1.002671 0.003550 -0.005361
0.050000 1.265116 1.001676 0.002019 -0.003358
0.050000 1.637645 1.000798 0.001215 -0.001599
0.050000 2.103306 1.000000 0.000000 0.000000
0.100000 -0.025000 1.011771 0.090366 -0.031846
0.100000 0.025000 1.011771 0.069634 -0.028529
0.100000 0.087500 1.007545 0.051655 -0.017815
0.100000 0.165625 1.006804 0.036238 -0.014968
0.100000 0.263281 1.006914 0.024444 -0.014473
0.100000 0.385352 1.006614 0.015880 -0.013524
0.100000 0.537939 1.005694 0.009878 -0.011518
0.100000 0.728674 1.004397 0.005864 -0.008847
0.100000 0.967093 1.003041 0.003339 -0.006102
0.100000 1.265116 1.001842 0.001868 -0.003690
0.100000 1.637645 1.000860 0.001110 -0.001722
0.100000 2.103306 1.000000 0.000000 0.000000
0.150000 -0.025000 1.026160 0.077619 -0.059028
0.150000 0.025000 1.026160 0.062381 -0.056895
0.150000 0.087500 1.018831 0.048337 -0.040354
0.150000 0.165625 1.014327 0.034954 -0.030082
0.150000 0.263281 1.011496 0.023808 -0.023690
0.150000 0.385352 1.009254 0.015368 -0.018830
0.150000 0.537939 1.007138 0.009418 -0.014415
0.150000 0.728674 1.005138 0.005491 -0.010333
0.150000 0.967093 1.003396 0.003074 -0.006812
0.150000 1.265116 1.001997 0.001694 -0.004002
0.150000 1.637645 1.000917 0.000996 -0.001835
0.150000 2.103306 1.000000 0.000000 0.000000
0.200000 -0.025000 1.036871 0.065769 -0.079426
0.200000 0.025000 1.036871 0.054231 -0.078042
0.200000 0.087500 1.027998 0.043241 -0.058650
0.200000 0.165625 1.021036 0.032065 -0.043542
0.200000 0.263281 1.015835 0.022135 -0.032411
0.200000 0.385352 1.011813 0.014293 -0.023969
0.200000 0.537939 1.008532 0.008679 -0.017213
0.200000 0.728674 1.005843 0.004992 -0.011745
0.200000 0.967093 1.003726 0.002754 -0.007474
0.200000 1.265116 1.002140 0.001499 -0.004287
0.200000 1.637645 1.000968 0.000872 -0.001938
0.200000 2.103306 1.000000 0.000000 0.000000
0.250000 -0.025000 1.045002 0.054395 -0.094989
0.250000 0.025000 1.045002 0.045605 -0.094110
0.250000 0.087500 1.035286 0.037076 -0.073193
0.250000 0.165625 1.026723 0.028035 -0.054947
0.250000 0.263281 1.019713 0.019611 -0.040200
0.250000 0.385352 1.014163 0.012709 -0.028687
0.250000 0.537939 1.009819 0.007679 -0.019793
0.250000 0.728674 1.006487 0.004371 -0.013035
0.250000 0.967093 1.004023 0.002383 -0.008068
0.250000 1.265116 1.002266 0.001283 -0.004539
0.250000 1.637645 1.001013 0.000740 -0.002028
0.250000 2.103306 1.000000 0.000000 0.000000
0.300000 -0.025000 1.051154 0.043294 -0.106799
0.300000 0.025000 1.051154 0.036706 -0.106272
0.300000 0.087500 1.040945 0.030243 -0.084480
0.300000 0.165625 1.031336 0.023205 -0.064192
0.300000 0.263281 1.022992 0.016419 -0.046783
0.300000 0.385352 1.016203 0.010691 -0.032783
0.300000 0.537939 1.010945 0.006444 -0.022052
0.300000 0.728674 1.007048 0.003641 -0.014159
0.300000 0.967093 1.004279 0.001967 -0.008581
0.300000 1.265116 1.002373 0.001050 -0.004753
0.300000 1.637645 1.001051 0.000602 -0.002103
0.300000 2.103306 1.000000 0.000000 0.000000
0.350000 -0.025000 1.055677 0.032359 -0.115501
0.350000 0.025000 1.055677 0.027641 -0.115218
0.350000 0.087500 1.045168 0.022983 -0.092904
0.350000 0.165625 1.034879 0.017822 -0.071293
0.350000 0.263281 1.025593 0.012724 -0.052002
0.350000 0.385352 1.017859 0.008323 -0.036105
0.350000 0.537939 1.011867 0.005012 -0.023901
0.350000 0.728674 1.007506 0.002818 -0.015076
0.350000 0.967093 1.004486 0.001512 -0.008995
0.350000 1.265116 1.002459 0.000801 -0.004926
0.350000 1.637645 1.001081 0.000457 -0.002163
0.350000 2.103306 1.000000 0.000000 0.000000
0.400000 -0.025000 1.058784 0.021524 -0.121487
0.400000 0.025000 1.058784 0.018476 -0.121365
0.400000 0.087500 1.048095 0.015454 -0.098743
0.400000 0.165625 1.037382 0.012069 -0.076308
0.400000 0.263281 1.027471 0.008672 -0.055771
0.400000 0.385352 1.019075 0.005693 -0.038547
0.400000 0.537939 1.012551 0.003428 -0.025271
0.400000 0.728674 1.007845 0.001921 -0.015756
0.400000 0.967093 1.004639 0.001026 -0.009301
0.400000 1.265116 1.002522 0.000542 -0.005051
0.400000 1.637645 1.001103 0.000308 -0.002207
0.400000 2.103306 1.000000 0.000000 0.000000
0.450000 -0.025000 1.060603 0.010749 -0.124994
0.450000 0.025000 1.060603 0.009251 -0.124964
0.450000 0.087500 1.049818 0.007764 -0.102178
0.450000 0.165625 1.038871 0.006089 -0.079291
0.450000 0.263281 1.028604 0.004392 -0.058046
0.450000 0.385352 1.019819 0.002891 -0.040038
0.450000 0.537939 1.012971 0.001741 -0.026112
0.450000 0.728674 1.008054 0.000974 -0.016173
0.450000 0.967093 1.004733 0.000519 -0.009488
0.450000 1.265116 1.002561 0.000274 -0.005128
0.450000 1.637645 1.001116 0.000156 -0.002234
0.450000 2.103306 1.000000 0.000000 0.000000
0.500000 -0.025000 1.061202 -0.000000 -0.126149
0.500000 0.025000 1.061202 0.000000 -0.126149
0.500000 0.087500 1.050386 0.000000 -0.103312
0.500000 0.165625 1.039366 0.000001 -0.080281
0.500000 0.263281 1.028983 0.000001 -0.058807
0.500000 0.385352 1.020069 0.000001 -0.040540
0.500000 0.537939 1.013112 0.000002 -0.026397
0.500000 0.728674 1.008124 0.000002 -0.016314
0.500000 0.967093 1.004764 0.000002 -0.009551
0.500000 1.265116 1.002574 0.000002 -0.005154
0.500000 1.637645 1.001121 0.000003 -0.002243
0.500000 2.103306 1.000000 0.000000 0.000000
0.550000 -0.025000 1.060603 -0.010749 -0.124994
0.550000 0.025000 1.060603 -0.009251 -0.124964
0.550000 0.087500 1.049818 -0.007763 -0.102178
0.550000 0.165625 1.038872 -0.006087 -0.079292
0.550000 0.263281 1.028605 -0.004390 -0.058047
0.550000 0.385352 1.019819 -0.002888 -0.040039
0.550000 0.537939 1.012971 -0.001738 -0.026113
0.550000 0.728674 1.008054 -0.000971 -0.016174
0.550000 0.967093 1.004733 -0.000515 -0.009488
0.550000 1.265116 1.002561 -0.000269 -0.005129
0.550000 1.637645 1.001116 -0.000151 -0.002234
0.550000 2.103306 1.000000 0.000000 0.000000
0.600000 -0.025000 1.058785 -0.021525 -0.121488
0.600000 0.025000 1.058785 -0.018475 -0.121366
0.600000 0.087500 1.048096 -0.015453 -0.098744
0.600000 0.165625 1.037383 -0.012067 -0.076309
0.600000 0.263281 1.027472 -0.008670 -0.055773
0.600000 0.385352 1.019076 -0.005691 -0.038549
0.600000 0.537939 1.012551 -0.003425 -0.025272
0.600000 0.728674 1.007846 -0.001918 -0.015757
0.600000 0.967093 1.004640 -0.001022 -0.009302
0.600000 1.265116 1.002523 -0.000537 -0.005052
0.600000 1.637645 1.001103 -0.000303 -0.002208
0.600000 2.103306 1.000000 0.000000 0.000000
0.650000 -0.025000 1.055678 -0.032359 -0.115503
0.650000 0.025000 1.055678 -0.027641 -0.115220
0.650000 0.087500 1.045169 -0.022982 -0.092907
0.650000 0.165625 1.034881 -0.017820 -0.071295
0.650000 0.263281 1.025594 -0.012722 -0.052004
0.650000 0.385352 1.017860 -0.008320 -0.036108
0.650000 0.537939 1.011868 -0.005009 -0.023903
0.650000 0.728674 1.007507 -0.002814 -0.015078
0.650000 0.967093 1.004487 -0.001507 -0.008997
0.650000 1.265116 1.002460 -0.000797 -0.004927
0.650000 1.637645 1.001081 -0.000452 -0.002164
0.650000 2.103306 1.000000 0.000000 0.000000
0.700000 -0.025000 1.051156 -0.043295 -0.106803
0.700000 0.025000 1.051156 -0.036705 -0.106276
0.700000 0.087500 1.040946 -0.030242 -0.084484
0.700000 0.165625 1.031337 -0.023204 -0.064195
0.700000 0.263281 1.022994 -0.016417 -0.046786
0.700000 0.385352 1.016205 -0.010688 -0.032786
0.700000 0.537939 1.010947 -0.006441 -0.022055
0.700000 0.728674 1.007049 -0.003638 -0.014161
0.700000 0.967093 1.004280 -0.001963 -0.008583
0.700000 1.265116 1.002374 -0.001045 -0.004755
0.700000 1.637645 1.001051 -0.000596 -0.002104
0.700000 2.103306 1.000000 0.000000 0.000000
0.750000 -0.025000 1.045004 -0.054395 -0.094993
0.750000 0.025000 1.045004 -0.045605 -0.094114
0.750000 0.087500 1.035289 -0.037075 -0.073197
0.750000 0.165625 1.026725 -0.028033 -0.054951
0.750000 0.263281 1.019715 -0.019609 -0.040203
0.750000 0.385352 1.014165 -0.012706 -0.028691
0.750000 0.537939 1.009821 -0.007676 -0.019797
0.750000 0.728674 1.006489 -0.004368 -0.013039
0.750000 0.967093 1.004025 -0.002379 -0.008071
0.750000 1.265116 1.002267 -0.001278 -0.004541
0.750000 1.637645 1.001014 -0.000735 -0.002029
0.750000 2.103306 1.000000 0.000000 0.000000
0.800000 -0.025000 1.036873 -0.065769 -0.079432
0.800000 0.025000 1.036873 -0.054231 -0.078047
0.800000 0.087500 1.028001 -0.043240 -0.058655
0.800000 0.165625 1.021038 -0.032063 -0.043547
0.800000 0.263281 1.015838 -0.022133 -0.032416
0.800000 0.385352 1.011815 -0.014290 -0.023974
0.800000 0.537939 1.008534 -0.008676 -0.017217
0.800000 0.728674 1.005845 -0.004988 -0.011749
0.800000 0.967093 1.003728 -0.002750 -0.007477
0.800000 1.265116 1.002141 -0.001494 -0.004289
0.800000 1.637645 1.000969 -0.000867 -0.001939
0.800000 2.103306 1.000000 0.000000 0.000000
0.850000 -0.025000 1.026162 -0.077620 -0.059034
0.850000 0.025000 1.026162 -0.062380 -0.056901
0.850000 0.087500 1.018834 -0.048336 -0.040359
0.850000 0.165625 1.014330 -0.034953 -0.030087
0.850000 0.263281 1.011498 -0.023806 -0.023696
0.850000 0.385352 1.009257 -0.015365 -0.018835
0.850000 0.537939 1.007140 -0.009415 -0.014420
0.850000 0.728674 1.005141 -0.005488 -0.010338
0.850000 0.967093 1.003398 -0.003069 -0.006816
0.850000 1.265116 1.001999 -0.001690 -0.004005
0.850000 1.637645 1.000918 -0.000991 -0.001837
0.850000 2.103306 1.000000 0.000000 0.000000
0.900000 -0.025000 1.011774 -0.090366 -0.031853
0.900000 0.025000 1.011774 -0.069634 -0.028536
0.900000 0.087500 1.007548 -0.051655 -0.017822
0.900000 0.165625 1.006807 -0.036236 -0.014974
0.900000 0.263281 1.006917 -0.024442 -0.014479
0.900000 0.385352 1.006617 -0.015877 -0.013530
0.900000 0.537939 1.005697 -0.009875 -0.011524
0.900000 0.728674 1.004399 -0.005860 -0.008852
0.900000 0.967093 1.003043 -0.003335 -0.006106
0.900000 1.265116 1.001843 -0.001864 -0.003694
0.900000 1.637645 1.000861 -0.001105 -0.001724
0.900000 2.103306 1.000000 0.000000 0.000000
0.950000 -0.025000 0.991502 -0.104975 0.005905
0.950000 0.025000 0.991502 -0.075025 0.011295
0.950000 0.087500 0.994196 -0.051868 0.008884
0.950000 0.165625 0.998983 -0.035312 0.000787
0.950000 0.263281 1.002417 -0.023893 -0.005411
0.950000 0.385352 1.004042 -0.015810 -0.008350
0.950000 0.537939 1.004265 -0.010060 -0.008649
0.950000 0.728674 1.003645 -0.006106 -0.007340
0.950000 0.967093 1.002673 -0.003546 -0.005366
0.950000 1.265116 1.001678 -0.002015 -0.003362
0.950000 1.637645 1.000799 -0.001210 -0.001601
0.950000 2.103306 1.000000 0.000000 0.000000
1.000000 -0.025000 0.955650 -0.123872 0.071388
1.000000 0.025000 0.955650 -0.076128 0.080937
1.000000 0.087500 0.978486 -0.046335 0.040418
1.000000 0.165625 0.991104 -0.031559 0.016716
1.000000 0.263281 0.997959 -0.022139 0.003587
1.000000 0.385352 1.001406 -0.015204 -0.003045
1.000000 0.537939 1.002737 -0.009991 -0.005581
1.000000 0.728674 1.002808 -0.006231 -0.005663
1.000000 0.967093 1.002249 -0.003702 -0.004516
1.000000 1.265116 1.001482 -0.002143 -0.002971
1.000000 1.637645 1.000726 -0.001305 -0.001453
1.000000 2.103306 1.000000 0.000000 0.000000
1.062500 -0.025000 0.951790 0.012190 0.093947
1.062500 0.025000 0.951790 -0.012190 0.093947
1.062500 0.087500 0.973205 -0.023505 0.052319
1.062500 0.165625 0.986395 -0.022849 0.026504
1.062500 0.263281 0.994408 -0.018618 0.010806
1.062500 0.385352 0.998967 -0.013853 0.001873
1.062500 0.537939 1.001190 -0.009601 -0.002473
1.062500 0.728674 1.001907 -0.006234 -0.003856
1.062500 0.967093 1.001770 -0.003824 -0.003557
1.062500 1.265116 1.001254 -0.002271 -0.002515
1.062500 1.637645 1.000637 -0.001409 -0.001277
1.062500 2.103306 1.000000 0.000000 0.000000
1.140625 -0.025000 0.971659 0.004914 0.055855
1.140625 0.025000 0.971659 -0.004914 0.055855
1.140625 0.087500 0.978062 -0.011730 0.043256
1.140625 0.165625 0.985734 -0.014597 0.028116
1.140625 0.263281 0.992262 -0.014093 0.015217
1.140625 0.385352 0.996878 -0.011732 0.006098
1.140625 0.537939 0.999626 -0.008787 0.000671
1.140625 0.728674 1.000901 -0.006041 -0.001839
1.140625 0.967093 1.001198 -0.003873 -0.002413
1.140625 1.265116 1.000968 -0.002381 -0.001943
1.140625 1.637645 1.000523 -0.001516 -0.001050
1.140625 2.103306 1.000000 0.000000 0.000000
1.238281 -0.025000 0.982068 0.002184 0.035538
1.238281 0.025000 0.982068 -0.002184 0.035538
1.238281 0.087500 0.984041 -0.005911 0.031628
1.238281 0.165625 0.987624 -0.008649 0.024524
1.238281 0.263281 0.991784 -0.009703 0.016270
1.238281 0.385352 0.995524 -0.009140 0.008848
1.238281 0.537939 0.998263 -0.007541 0.003415
1.238281 0.728674 0.999875 -0.005590 0.000219
1.238281 0.967093 1.000554 -0.003802 -0.001123
1.238281 1.265116 1.000624 -0.002447 -0.001254
1.238281 1.637645 1.000380 -0.001612 -0.000763
1.238281 2.103306 1.000000 0.000000 0.000000
1.360352 -0.025000 0.988071 0.001061 0.023715
1.360352 0.025000 0.988071 -0.001061 0.023715
1.360352 0.087500 0.988743 -0.003049 0.022379
1.360352 0.165625 0.990274 -0.004919 0.019333
1.360352 0.263281 0.992524 -0.006193 0.014858
1.360352 0.385352 0.995046 -0.006549 0.009840
1.360352 0.537939 0.997313 -0.006002 0.005331
1.360352 0.728674 0.998958 -0.004868 0.002059
1.360352 0.967093 0.999888 -0.003567 0.000210
1.360352 1.265116 1.000232 -0.002438 -0.000470
1.360352 1.637645 1.000207 -0.001679 -0.000417
1.360352 2.103306 1.000000 0.000000 0.000000
1.512939 -0.025000 0.991804 0.000544 0.016324
1.512939 0.025000 0.991804 -0.000544 0.016324
1.512939 0.087500 0.992058 -0.001608 0.015818
1.512939 0.165625 0.992702 -0.002741 0.014536
1.512939 0.263281 0.993804 -0.003738 0.012340
1.512939 0.385352 0.995278 -0.004351 0.009402
1.512939 0.537939 0.996874 -0.004411 0.006222
1.512939 0.728674 0.998282 -0.003942 0.003417
1.512939 0.967093 0.999281 -0.003150 0.001427
1.512939 1.265116 0.999825 -0.002317 0.000345
1.512939 1.637645 1.000012 -0.001689 -0.000026
1.512939 2.103306 1.000000 0.000000 0.000000
1.703674 -0.025000 0.994228 0.000287 0.011511
1.703674 0.025000 0.994228 -0.000287 0.011511
1.703674 0.087500 0.994331 -0.000859 0.011306
1.703674 0.165625 0.994605 -0.001509 0.010758
1.703674 0.263281 0.995119 -0.002167 0.009733
1.703674 0.385352 0.995899 -0.002711 0.008178
1.703674 0.537939 0.996884 -0.002998 0.006212
1.703674 0.728674 0.997920 -0.002943 0.004147
1.703674 0.967093 0.998817 -0.002579 0.002358
1.703674 1.265116 0.999450 -0.002064 0.001094
1.703674 1.637645 0.999812 -0.001608 0.000374
1.703674 2.103306 1.000000 0.000000 0.000000
1.942093 -0.025000 0.995825 0.000151 0.008332
1.942093 0.025000 0.995825 -0.000151 0.008332
1.942093 0.087500 0.995869 -0.000457 0.008244
1.942093 0.165625 0.995989 -0.000816 0.008005
1.942093 0.263281 0.996226 -0.001211 0.007533
1.942093 0.385352 0.996616 -0.001593 0.006754
1.942093 0.537939 0.997171 -0.001886 0.005647
1.942093 0.728674 0.997847 -0.002009 0.004298
1.942093 0.967093 0.998547 -0.001925 0.002899
1.942093 1.265116 0.999163 -0.001680 0.001670
1.942093 1.637645 0.999634 -0.001407 0.000729
1.942093 2.103306 1.000000 0.000000 0.000000
2.240116 -0.025000 0.996862 0.000077 0.006266
2.240116 0.025000 0.996862 -0.000077 0.006266
2.240116 0.087500 0.996882 -0.000233 0.006226
2.240116 0.165625 0.996937 -0.000421 0.006116
2.240116 0.263281 0.997049 -0.000637 0.005893
2.240116 0.385352 0.997244 -0.000866 0.005504
2.240116 0.537939 0.997545 -0.001075 0.004903
2.240116 0.728674 0.997959 -0.001222 0.004076
2.240116 0.967093 0.998460 -0.001263 0.003076
2.240116 1.265116 0.998993 -0.001194 0.002011
2.240116 1.637645 0.999506 -0.001072 0.000988
2.240116 2.103306 1.000000 0.000000 0.000000
2.612645 -0.025000 0.997473 0.000033 0.005047
2.612645 0.025000 0.997473 -0.000033 0.005047
2.612645 0.087500 0.997484 -0.000099 0.005027
2.612645 0.165625 0.997512 -0.000180 0.004969
2.612645 0.263281 0.997572 -0.000276 0.004850
2.612645 0.385352 0.997679 -0.000382 0.004636
2.612645 0.537939 0.997855 -0.000489 0.004284
2.612645 0.728674 0.998120 -0.000579 0.003756
2.612645 0.967093 0.998481 -0.000632 0.003035
2.612645 1.265116 0.998928 -0.000635 0.002142
2.612645 1.637645 0.999436 -0.000602 0.001127
2.612645 2.103306 1.000000 0.000000 0.000000
3.078306 -0.025000 1.000000 -0.000000 0.000000
3.078306 0.025000 1.000000 0.000000 0.000000
3.078306 0.087500 1.000000 0.000000 0.000000
3.078306 0.165625 1.000000 0.000000 0.000000
3.078306 0.263281 1.000000 0.000000 0.000000
3.078306 0.385352 1.000000 0.000000 0.000000
3.078306 0.537939 1.000000 0.000000 0.000000
3.078306 0.728674 1.000000 0.000000 0.000000
3.078306 0.967093 1.000000 0.000000 0.000000
3.078306 1.265116 1.000000 0.000000 0.000000
3.078306 1.637645 1.000000 0.000000 0.000000
3.078306 2.103306 1.000000 0.000000 0.000000
