VARIABLES = "X", "Y", "Ux", "Uy", "Cp" 
ZONE I=12, J=41, F=POINT
-2.078306 -0.025000 1.000000 -0.000000 0.000000
-2.078306 0.025000 1.000000 0.000000 0.000000
-2.078306 0.087500 1.000000 0.000000 0.000000
-2.078306 0.165625 1.000000 0.000000 0.000000
-2.078306 0.263281 1.000000 0.000000 0.000000
-2.078306 0.385352 1.000000 0.000000 0.000000
-2.078306 0.537939 1.000000 0.000000 0.000000
-2.078306 0.728674 1.000000 0.000000 0.000000
-2.078306 0.967093 1.000000 0.000000 0.000000
-2.078306 1.265116 1.000000 0.000000 0.000000
-2.078306 1.637645 1.000000 0.000000 0.000000
-2.078306 2.103306 1.000000 0.000000 0.000000
-1.612645 -0.025000 0.997472 -0.000033 0.005050
-1.612645 0.025000 0.997472 0.000033 0.005050
-1.612645 0.087500 0.997482 0.000099 0.005030
-1.612645 0.165625 0.997511 0.000180 0.004972
-1.612645 0.263281 0.997570 0.000276 0.004853
-1.612645 0.385352 0.997678 0.000382 0.004639
-1.612645 0.537939 0.997854 0.000489 0.004287
-1.612645 0.728674 0.998119 0.000580 0.003759
-1.612645 0.967093 0.998480 0.000632 0.003037
-1.612645 1.265116 0.998927 0.000635 0.002144
-1.612645 1.637645 0.999436 0.000602 0.001128
-1.612645 2.103306 1.000000 0.000000 0.000000
-1.240116 -0.025000 0.996861 -0.000077 0.006269
-1.240116 0.025000 0.996861 0.000077 0.006269
-1.240116 0.087500 0.996880 0.000233 0.006229
-1.240116 0.165625 0.996936 0.000421 0.006119
-1.240116 0.263281 0.997047 0.000637 0.005896
-1.240116 0.385352 0.997242 0.000866 0.005507
-1.240116 0.537939 0.997544 0.001076 0.004906
-1.240116 0.728674 0.997958 0.001222 0.004079
-1.240116 0.967093 0.998459 0.001264 0.003078
-1.240116 1.265116 0.998992 0.001195 0.002013
-1.240116 1.637645 0.999505 0.001073 0.000989
-1.240116 2.103306 1.000000 0.000000 0.000000
-0.942093 -0.025000 0.995824 -0.000151 0.008335
-0.942093 0.025000 0.995824 0.000151 0.008335
-0.942093 0.087500 0.995868 0.000457 0.008248
-0.942093 0.165625 0.995988 0.000817 0.008008
-0.942093 0.263281 0.996224 0.001212 0.007536
-0.942093 0.385352 0.996614 0.001593 0.006757
-0.942093 0.537939 0.997169 0.001886 0.005650
-0.942093 0.728674 0.997845 0.002010 0.004301
-0.942093 0.967093 0.998546 0.001926 0.002902
-0.942093 1.265116 0.999162 0.001681 0.001672
-0.942093 1.637645 0.999634 0.001408 0.000730
-0.942093 2.103306 1.000000 0.000000 0.000000
-0.703674 -0.025000 0.994226 -0.000287 0.011515
-0.703674 0.025000 0.994226 0.000287 0.011515
-0.703674 0.087500 0.994329 0.000859 0.011309
-0.703674 0.165625 0.994603 0.001509 0.010762
-0.703674 0.263281 0.995117 0.002168 0.009737
-0.703674 0.385352 0.995897 0.002712 0.008181
-0.703674 0.537939 0.996883 0.002999 0.006216
-0.703674 0.728674 0.997918 0.002944 0.004151
-0.703674 0.967093 0.998816 0.002581 0.002360
-0.703674 1.265116 0.999449 0.002065 0.001096
-0.703674 1.637645 0.999811 0.001609 0.000375
-0.703674 2.103306 1.000000 0.000000 0.000000
-0.512939 -0.025000 0.991802 -0.000544 0.016328
-0.512939 0.025000 0.991802 0.000544 0.016328
-0.512939 0.087500 0.992056 0.001608 0.015822
-0.512939 0.165625 0.992700 0.002741 0.014540
-0.512939 0.263281 0.993802 0.003739 0.012344
-0.512939 0.385352 0.995276 0.004352 0.009406
-0.512939 0.537939 0.996873 0.004412 0.006225
-0.512939 0.728674 0.998281 0.003943 0.003420
-0.512939 0.967093 0.999280 0.003151 0.001430
-0.512939 1.265116 0.999824 0.002318 0.000347
-0.512939 1.637645 1.000011 0.001690 -0.000025
-0.512939 2.103306 1.000000 0.000000 0.000000
-0.360352 -0.025000 0.988069 -0.001061 0.023719
-0.360352 0.025000 0.988069 0.001061 0.023719
-0.360352 0.087500 0.988741 0.003050 0.022383
-0.360352 0.165625 0.990272 0.004919 0.019337
-0.360352 0.263281 0.992522 0.006194 0.014862
-0.360352 0.385352 0.995044 0.006550 0.009844
-0.360352 0.537939 0.997311 0.006003 0.005335
-0.360352 0.728674 0.998956 0.004869 0.002062
-0.360352 0.967093 0.999887 0.003568 0.000213
-0.360352 1.265116 1.000231 0.002439 -0.000468
-0.360352 1.637645 1.000206 0.001681 -0.000416
-0.360352 2.103306 1.000000 0.000000 0.000000
-0.238281 -0.025000 0.982066 -0.002184 0.035542
-0.238281 0.025000 0.982066 0.002184 0.035542
-0.238281 0.087500 0.984039 0.005912 0.031633
-0.238281 0.165625 0.987622 0.008650 0.024528
-0.238281 0.263281 0.991782 0.009704 0.016275
-0.238281 0.385352 0.995522 0.009141 0.008852
-0.238281 0.537939 0.998261 0.007542 0.003418
-0.238281 0.728674 0.999873 0.005592 0.000222
-0.238281 0.967093 1.000552 0.003804 -0.001120
-0.238281 1.265116 1.000622 0.002449 -0.001251
-0.238281 1.637645 1.000379 0.001614 -0.000762
-0.238281 2.103306 1.000000 0.000000 0.000000
-0.140625 -0.025000 0.971657 -0.004914 0.055859
-0.140625 0.025000 0.971657 0.004914 0.055859
-0.140625 0.087500 0.978060 0.011731 0.043261
-0.140625 0.165625 0.985732 0.014598 0.028120
-0.140625 0.263281 0.992260 0.014094 0.015222
-0.140625 0.385352 0.996876 0.011733 0.006101
-0.140625 0.537939 0.999624 0.008788 0.000674
-0.140625 0.728674 1.000899 0.006043 -0.001835
-0.140625 0.967093 1.001197 0.003875 -0.002410
-0.140625 1.265116 1.000967 0.002383 -0.001941
-0.140625 1.637645 1.000523 0.001518 -0.001048
-0.140625 2.103306 1.000000 0.000000 0.000000
-0.062500 -0.025000 0.951788 -0.012190 0.093951
-0.062500 0.025000 0.951788 0.012190 0.093951
-0.062500 0.087500 0.973203 0.023505 0.052323
-0.062500 0.165625 0.986393 0.022850 0.026508
-0.062500 0.263281 0.994406 0.018619 0.010810
-0.062500 0.385352 0.998965 0.013854 0.001877
-0.062500 0.537939 1.001188 0.009602 -0.002470
-0.062500 0.728674 1.001905 0.006236 -0.003853
-0.062500 0.967093 1.001768 0.003826 -0.003554
-0.062500 1.265116 1.001253 0.002273 -0.002512
-0.062500 1.637645 1.000637 0.001412 -0.001276
-0.062500 2.103306 1.000000 0.000000 0.000000
0.000000 -0.025000 0.955648 0.123872 0.071392
0.000000 0.025000 0.955648 0.076128 0.080941
0.000000 0.087500 0.978484 0.046335 0.040422
0.000000 0.165625 0.991102 0.031560 0.016720
0.000000 0.263281 0.997958 0.022140 0.003591
0.000000 0.385352 1.001404 0.015206 -0.003041
0.000000 0.537939 1.002735 0.009992 -0.005577
0.000000 0.728674 1.002807 0.006233 -0.005660
0.000000 0.967093 1.002247 0.003704 -0.004514
0.000000 1.265116 1.001481 0.002145 -0.002969
0.000000 1.637645 1.000725 0.001308 -0.001452
0.000000 2.103306 1.000000 0.000000 0.000000
0.050000 -0.025000 0.991500 0.104974 0.005908
0.050000 0.025000 0.991500 0.075026 0.011299
0.050000 0.087500 0.994194 0.051868 0.008888
0.050000 0.165625 0.998981 0.035313 0.000791
0.050000 0.263281 1.002415 0.023894 -0.005407
0.050000 0.385352 1.004040 0.015811 -0.008347
0.050000 0.537939 1.004263 0.010062 -0.008646
0.050000 0.728674 1.003643 0.006108 -0.007337
0.050000 0.967093 1.002672 0.003548 -0.005363
0.050000 1.265116 1.001677 0.002017 -0.003360
0.050000 1.637645 1.000799 0.001213 -0.001600
0.050000 2.103306 1.000000 0.000000 0.000000
0.100000 -0.025000 1.011772 0.090366 -0.031849
0.100000 0.025000 1.011772 0.069634 -0.028532
0.100000 0.087500 1.007547 0.051655 -0.017819
0.100000 0.165625 1.006806 0.036237 -0.014971
0.100000 0.263281 1.006915 0.024443 -0.014476
0.100000 0.385352 1.006615 0.015878 -0.013527
0.100000 0.537939 1.005695 0.009877 -0.011521
0.100000 0.728674 1.004398 0.005862 -0.008850
0.100000 0.967093 1.003042 0.003337 -0.006104
0.100000 1.265116 1.001843 0.001866 -0.003692
0.100000 1.637645 1.000860 0.001108 -0.001723
0.100000 2.103306 1.000000 0.000000 0.000000
0.150000 -0.025000 1.026161 0.077619 -0.059031
0.150000 0.025000 1.026161 0.062381 -0.056898
0.150000 0.087500 1.018833 0.048337 -0.040356
0.150000 0.165625 1.014329 0.034953 -0.030084
0.150000 0.263281 1.011497 0.023807 -0.023693
0.150000 0.385352 1.009255 0.015367 -0.018833
0.150000 0.537939 1.007139 0.009416 -0.014418
0.150000 0.728674 1.005140 0.005489 -0.010336
0.150000 0.967093 1.003397 0.003071 -0.006814
0.150000 1.265116 1.001998 0.001692 -0.004003
0.150000 1.637645 1.000917 0.000993 -0.001836
0.150000 2.103306 1.000000 0.000000 0.000000
0.200000 -0.025000 1.036872 0.065769 -0.079429
0.200000 0.025000 1.036872 0.054231 -0.078044
0.200000 0.087500 1.027999 0.043241 -0.058652
0.200000 0.165625 1.021037 0.032064 -0.043544
0.200000 0.263281 1.015836 0.022134 -0.032414
0.200000 0.385352 1.011814 0.014292 -0.023971
0.200000 0.537939 1.008533 0.008678 -0.017215
0.200000 0.728674 1.005844 0.004990 -0.011747
0.200000 0.967093 1.003727 0.002752 -0.007475
0.200000 1.265116 1.002140 0.001496 -0.004288
0.200000 1.637645 1.000968 0.000869 -0.001938
0.200000 2.103306 1.000000 0.000000 0.000000
0.250000 -0.025000 1.045003 0.054395 -0.094991
0.250000 0.025000 1.045003 0.045605 -0.094112
0.250000 0.087500 1.035287 0.037076 -0.073195
0.250000 0.165625 1.026724 0.028034 -0.054949
0.250000 0.263281 1.019714 0.019610 -0.040201
0.250000 0.385352 1.014164 0.012708 -0.028689
0.250000 0.537939 1.009820 0.007677 -0.019795
0.250000 0.728674 1.006488 0.004370 -0.013037
0.250000 0.967093 1.004024 0.002381 -0.008070
0.250000 1.265116 1.002267 0.001281 -0.004540
0.250000 1.637645 1.001013 0.000738 -0.002028
0.250000 2.103306 1.000000 0.000000 0.000000
0.300000 -0.025000 1.051155 0.043294 -0.106801
0.300000 0.025000 1.051155 0.036706 -0.106274
0.300000 0.087500 1.040945 0.030243 -0.084482
0.300000 0.165625 1.031336 0.023204 -0.064193
0.300000 0.263281 1.022993 0.016418 -0.046784
0.300000 0.385352 1.016204 0.010689 -0.032785
0.300000 0.537939 1.010946 0.006442 -0.022053
0.300000 0.728674 1.007049 0.003639 -0.014160
0.300000 0.967093 1.004280 0.001965 -0.008582
0.300000 1.265116 1.002374 0.001047 -0.004754
0.300000 1.637645 1.001051 0.000599 -0.002104
0.300000 2.103306 1.000000 0.000000 0.000000
0.350000 -0.025000 1.055677 0.032359 -0.115502
0.350000 0.025000 1.055677 0.027641 -0.115219
0.350000 0.087500 1.045169 0.022983 -0.092905
0.350000 0.165625 1.034880 0.017821 -0.071294
0.350000 0.263281 1.025593 0.012723 -0.052003
0.350000 0.385352 1.017859 0.008321 -0.036106
0.350000 0.537939 1.011868 0.005011 -0.023902
0.350000 0.728674 1.007506 0.002816 -0.015077
0.350000 0.967093 1.004487 0.001510 -0.008996
0.350000 1.265116 1.002460 0.000799 -0.004926
0.350000 1.637645 1.001081 0.000454 -0.002164
0.350000 2.103306 1.000000 0.000000 0.000000
0.400000 -0.025000 1.058784 0.021525 -0.121487
0.400000 0.025000 1.058784 0.018475 -0.121365
0.400000 0.087500 1.048096 0.015453 -0.098743
0.400000 0.165625 1.037383 0.012068 -0.076308
0.400000 0.263281 1.027471 0.008671 -0.055772
0.400000 0.385352 1.019076 0.005692 -0.038548
0.400000 0.537939 1.012551 0.003427 -0.025271
0.400000 0.728674 1.007846 0.001920 -0.015756
0.400000 0.967093 1.004639 0.001024 -0.009301
0.400000 1.265116 1.002523 0.000539 -0.005052
0.400000 1.637645 1.001103 0.000306 -0.002207
0.400000 2.103306 1.000000 0.000000 0.000000
0.450000 -0.025000 1.060603 0.010749 -0.124994
0.450000 0.025000 1.060603 0.009251 -0.124964
0.450000 0.087500 1.049818 0.007764 -0.102178
0.450000 0.165625 1.038872 0.006088 -0.079291
0.450000 0.263281 1.028604 0.004391 -0.058046
0.450000 0.385352 1.019819 0.002889 -0.040039
0.450000 0.537939 1.012971 0.001740 -0.026113
0.450000 0.728674 1.008054 0.000973 -0.016173
0.450000 0.967093 1.004733 0.000517 -0.009488
0.450000 1.265116 1.002561 0.000272 -0.005128
0.450000 1.637645 1.001116 0.000154 -0.002234
0.450000 2.103306 1.000000 0.000000 0.000000
0.500000 -0.025000 1.061202 -0.000000 -0.126149
0.500000 0.025000 1.061202 0.000000 -0.126149
0.500000 0.087500 1.050386 0.000000 -0.103312
0.500000 0.165625 1.039366 0.000000 -0.080281
0.500000 0.263281 1.028983 0.000000 -0.058806
0.500000 0.385352 1.020068 0.000000 -0.040540
0.500000 0.537939 1.013112 0.000000 -0.026396
0.500000 0.728674 1.008124 0.000000 -0.016314
0.500000 0.967093 1.004764 0.000000 -0.009551
0.500000 1.265116 1.002574 0.000000 -0.005154
0.500000 1.637645 1.001121 0.000000 -0.002243
0.500000 2.103306 1.000000 0.000000 0.000000
0.550000 -0.025000 1.060603 -0.010749 -0.124994
0.550000 0.025000 1.060603 -0.009251 -0.124964
0.550000 0.087500 1.049818 -0.007764 -0.102178
0.550000 0.165625 1.038872 -0.006088 -0.079291
0.550000 0.263281 1.028604 -0.004391 -0.058046
0.550000 0.385352 1.019819 -0.002889 -0.040039
0.550000 0.537939 1.012971 -0.001740 -0.026113
0.550000 0.728674 1.008054 -0.000973 -0.016173
0.550000 0.967093 1.004733 -0.000517 -0.009488
0.550000 1.265116 1.002561 -0.000272 -0.005128
0.550000 1.637645 1.001116 -0.000154 -0.002234
0.550000 2.103306 1.000000 0.000000 0.000000
0.600000 -0.025000 1.058784 -0.021525 -0.121487
0.600000 0.025000 1.058784 -0.018475 -0.121365
0.600000 0.087500 1.048096 -0.015453 -0.098743
0.600000 0.165625 1.037383 -0.012068 -0.076308
0.600000 0.263281 1.027471 -0.008671 -0.055772
0.600000 0.385352 1.019076 -0.005692 -0.038548
0.600000 0.537939 1.012551 -0.003427 -0.025271
0.600000 0.728674 1.007846 -0.001920 -0.015756
0.600000 0.967093 1.004639 -0.001024 -0.009301
0.600000 1.265116 1.002523 -0.000539 -0.005052
0.600000 1.637645 1.001103 -0.000306 -0.002207
0.600000 2.103306 1.000000 0.000000 0.000000
0.650000 -0.025000 1.055677 -0.032359 -0.115502
0.650000 0.025000 1.055677 -0.027641 -0.115219
0.650000 0.087500 1.045169 -0.022983 -0.092905
0.650000 0.165625 1.034880 -0.017821 -0.071294
0.650000 0.263281 1.025593 -0.012723 -0.052003
0.650000 0.385352 1.017859 -0.008321 -0.036106
0.650000 0.537939 1.011868 -0.005011 -0.023902
0.650000 0.728674 1.007506 -0.002816 -0.015077
0.650000 0.967093 1.004487 -0.001510 -0.008996
0.650000 1.265116 1.002460 -0.000799 -0.004926
0.650000 1.637645 1.001081 -0.000454 -0.002164
0.650000 2.103306 1.000000 0.000000 0.000000
0.700000 -0.025000 1.051155 -0.043294 -0.106801
0.700000 0.025000 1.051155 -0.036706 -0.106274
0.700000 0.087500 1.040945 -0.030243 -0.084482
0.700000 0.165625 1.031336 -0.023204 -0.064193
0.700000 0.263281 1.022993 -0.016418 -0.046784
0.700000 0.385352 1.016204 -0.010689 -0.032785
0.700000 0.537939 1.010946 -0.006442 -0.022053
0.700000 0.728674 1.007049 -0.003639 -0.014160
0.700000 0.967093 1.004280 -0.001965 -0.008582
0.700000 1.265116 1.002374 -0.001047 -0.004754
0.700000 1.637645 1.001051 -0.000599 -0.002104
0.700000 2.103306 1.000000 0.000000 0.000000
0.750000 -0.025000 1.045003 -0.054395 -0.094991
0.750000 0.025000 1.045003 -0.045605 -0.094112
0.750000 0.087500 1.035287 -0.037076 -0.073195
0.750000 0.165625 1.026724 -0.028034 -0.054949
0.750000 0.263281 1.019714 -0.019610 -0.040201
0.750000 0.385352 1.014164 -0.012708 -0.028689
0.750000 0.537939 1.009820 -0.007677 -0.019795
0.750000 0.728674 1.006488 -0.004370 -0.013037
0.750000 0.967093 1.004024 -0.002381 -0.008070
0.750000 1.265116 1.002267 -0.001281 -0.004540
0.750000 1.637645 1.001013 -0.000738 -0.002028
0.750000 2.103306 1.000000 0.000000 0.000000
0.800000 -0.025000 1.036872 -0.065769 -0.079429
0.800000 0.025000 1.036872 -0.054231 -0.078044
0.800000 0.087500 1.027999 -0.043241 -0.058652
0.800000 0.165625 1.021037 -0.032064 -0.043544
0.800000 0.263281 1.015836 -0.022134 -0.032414
0.800000 0.385352 1.011814 -0.014292 -0.023971
0.800000 0.537939 1.008533 -0.008678 -0.017215
0.800000 0.728674 1.005844 -0.004990 -0.011747
0.800000 0.967093 1.003727 -0.002752 -0.007475
0.800000 1.265116 1.002140 -0.001496 -0.004288
0.800000 1.637645 1.000968 -0.000869 -0.001938
0.800000 2.103306 1.000000 0.000000 0.000000
0.850000 -0.025000 1.026161 -0.077619 -0.059031
0.850000 0.025000 1.026161 -0.062381 -0.056898
0.850000 0.087500 1.018833 -0.048337 -0.040356
0.850000 0.165625 1.014329 -0.034953 -0.030084
0.850000 0.263281 1.011497 -0.023807 -0.023693
0.850000 0.385352 1.009255 -0.015367 -0.018833
0.850000 0.537939 1.007139 -0.009416 -0.014418
0.850000 0.728674 1.005140 -0.005489 -0.010336
0.850000 0.967093 1.003397 -0.003071 -0.006814
0.850000 1.265116 1.001998 -0.001692 -0.004003
0.850000 1.637645 1.000917 -0.000993 -0.001836
0.850000 2.103306 1.000000 0.000000 0.000000
0.900000 -0.025000 1.011772 -0.090366 -0.031849
0.900000 0.025000 1.011772 -0.069634 -0.028532
0.900000 0.087500 1.007547 -0.051655 -0.017819
0.900000 0.165625 1.006806 -0.036237 -0.014971
0.900000 0.263281 1.006915 -0.024443 -0.014476
0.900000 0.385352 1.006615 -0.015878 -0.013527
0.900000 0.537939 1.005695 -0.009877 -0.011521
0.900000 0.728674 1.004398 -0.005862 -0.008850
0.900000 0.967093 1.003042 -0.003337 -0.006104
0.900000 1.265116 1.001843 -0.001866 -0.003692
0.900000 1.637645 1.000860 -0.001108 -0.001723
0.900000 2.103306 1.000000 0.000000 0.000000
0.950000 -0.025000 0.991500 -0.104974 0.005908
0.950000 0.025000 0.991500 -0.075026 0.011299
0.950000 0.087500 0.994194 -0.051868 0.008888
0.950000 0.165625 0.998981 -0.035313 0.000791
0.950000 0.263281 1.002415 -0.023894 -0.005407
0.950000 0.385352 1.004040 -0.015811 -0.008347
0.950000 0.537939 1.004263 -0.010062 -0.008646
0.950000 0.728674 1.003643 -0.006108 -0.007337
0.950000 0.967093 1.002672 -0.003548 -0.005363
0.950000 1.265116 1.001677 -0.002017 -0.003360
0.950000 1.637645 1.000799 -0.001213 -0.001600
0.950000 2.103306 1.000000 0.000000 0.000000
1.000000 -0.025000 0.955648 -0.123872 0.071392
1.000000 0.025000 0.955648 -0.076128 0.080941
1.000000 0.087500 0.978484 -0.046335 0.040422
1.000000 0.165625 0.991102 -0.031560 0.016720
1.000000 0.263281 0.997958 -0.022140 0.003591
1.000000 0.385352 1.001404 -0.015206 -0.003041
1.000000 0.537939 1.002735 -0.009992 -0.005577
1.000000 0.728674 1.002807 -0.006233 -0.005660
1.000000 0.967093 1.002247 -0.003704 -0.004514
1.000000 1.265116 1.001481 -0.002145 -0.002969
1.000000 1.637645 1.000725 -0.001308 -0.001452
1.000000 2.103306 1.000000 0.000000 0.000000
1.062500 -0.025000 0.951788 0.012190 0.093951
1.062500 0.025000 0.951788 -0.012190 0.093951
1.062500 0.087500 0.973203 -0.023505 0.052323
1.062500 0.165625 0.986393 -0.022850 0.026508
1.062500 0.263281 0.994406 -0.018619 0.010810
1.062500 0.385352 0.998965 -0.013854 0.001877
1.062500 0.537939 1.001188 -0.009602 -0.002470
1.062500 0.728674 1.001905 -0.006236 -0.003853
1.062500 0.967093 1.001768 -0.003826 -0.003554
1.062500 1.265116 1.001253 -0.002273 -0.002512
1.062500 1.637645 1.000637 -0.001412 -0.001276
1.062500 2.103306 1.000000 0.000000 0.000000
1.140625 -0.025000 0.971657 0.004914 0.055859
1.140625 0.025000 0.971657 -0.004914 0.055859
1.140625 0.087500 0.978060 -0.011731 0.043261
1.140625 0.165625 0.985732 -0.014598 0.028120
1.140625 0.263281 0.992260 -0.014094 0.015222
1.140625 0.385352 0.996876 -0.011733 0.006101
1.140625 0.537939 0.999624 -0.008788 0.000674
1.140625 0.728674 1.000899 -0.006043 -0.001835
1.140625 0.967093 1.001197 -0.003875 -0.002410
1.140625 1.265116 1.000967 -0.002383 -0.001941
1.140625 1.637645 1.000523 -0.001518 -0.001048
1.140625 2.103306 1.000000 0.000000 0.000000
1.238281 -0.025000 0.982066 0.002184 0.035542
1.238281 0.025000 0.982066 -0.002184 0.035542
1.238281 0.087500 0.984039 -0.005912 0.031633
1.238281 0.165625 0.987622 -0.008650 0.024528
1.238281 0.263281 0.991782 -0.009704 0.016275
1.238281 0.385352 0.995522 -0.009141 0.008852
1.238281 0.537939 0.998261 -0.007542 0.003418
1.238281 0.728674 0.999873 -0.005592 0.000222
1.238281 0.967093 1.000552 -0.003804 -0.001120
1.238281 1.265116 1.000622 -0.002449 -0.001251
1.238281 1.637645 1.000379 -0.001614 -0.000762
1.238281 2.103306 1.000000 0.000000 0.000000
1.360352 -0.025000 0.988069 0.001061 0.023719
1.360352 0.025000 0.988069 -0.001061 0.023719
1.360352 0.087500 0.988741 -0.003050 0.022383
1.360352 0.165625 0.990272 -0.004919 0.019337
1.360352 0.263281 0.992522 -0.006194 0.014862
1.360352 0.385352 0.995044 -0.006550 0.009844
1.360352 0.537939 0.997311 -0.006003 0.005335
1.360352 0.728674 0.998956 -0.004869 0.002062
1.360352 0.967093 0.999887 -0.003568 0.000213
1.360352 1.265116 1.000231 -0.002439 -0.000468
1.360352 1.637645 1.000206 -0.001681 -0.000416
1.360352 2.103306 1.000000 0.000000 0.000000
1.512939 -0.025000 0.991802 0.000544 0.016328
1.512939 0.025000 0.991802 -0.000544 0.016328
1.512939 0.087500 0.992056 -0.001608 0.015822
1.512939 0.165625 0.992700 -0.002741 0.014540
1.512939 0.263281 0.993802 -0.003739 0.012344
1.512939 0.385352 0.995276 -0.004352 0.009406
1.512939 0.537939 0.996873 -0.004412 0.006225
1.512939 0.728674 0.998281 -0.003943 0.003420
1.512939 0.967093 0.999280 -0.003151 0.001430
1.512939 1.265116 0.999824 -0.002318 0.000347
1.512939 1.637645 1.000011 -0.001690 -0.000025
1.512939 2.103306 1.000000 0.000000 0.000000
1.703674 -0.025000 0.994226 0.000287 0.011515
1.703674 0.025000 0.994226 -0.000287 0.011515
1.703674 0.087500 0.994329 -0.000859 0.011309
1.703674 0.165625 0.994603 -0.001509 0.010762
1.703674 0.263281 0.995117 -0.002168 0.009737
1.703674 0.385352 0.995897 -0.002712 0.008181
1.703674 0.537939 0.996883 -0.002999 0.006216
1.703674 0.728674 0.997918 -0.002944 0.004151
1.703674 0.967093 0.998816 -0.002581 0.002360
1.703674 1.265116 0.999449 -0.002065 0.001096
1.703674 1.637645 0.999811 -0.001609 0.000375
1.703674 2.103306 1.000000 0.000000 0.000000
1.942093 -0.025000 0.995824 0.000151 0.008335
1.942093 0.025000 0.995824 -0.000151 0.008335
1.942093 0.087500 0.995868 -0.000457 0.008248
1.942093 0.165625 0.995988 -0.000817 0.008008
1.942093 0.263281 0.996224 -0.001212 0.007536
1.942093 0.385352 0.996614 -0.001593 0.006757
1.942093 0.537939 0.997169 -0.001886 0.005650
1.942093 0.728674 0.997845 -0.002010 0.004301
1.942093 0.967093 0.998546 -0.001926 0.002902
1.942093 1.265116 0.999162 -0.001681 0.001672
1.942093 1.637645 0.999634 -0.001408 0.000730
1.942093 2.103306 1.000000 0.000000 0.000000
2.240116 -0.025000 0.996861 0.000077 0.006269
2.240116 0.025000 0.996861 -0.000077 0.006269
2.240116 0.087500 0.996880 -0.000233 0.006229
2.240116 0.165625 0.996936 -0.000421 0.006119
2.240116 0.263281 0.997047 -0.000637 0.005896
2.240116 0.385352 0.997242 -0.000866 0.005507
2.240116 0.537939 0.997544 -0.001076 0.004906
2.240116 0.728674 0.997958 -0.001222 0.004079
2.240116 0.967093 0.998459 -0.001264 0.003078
2.240116 1.265116 0.998992 -0.001195 0.002013
2.240116 1.637645 0.999505 -0.001073 0.000989
2.240116 2.103306 1.000000 0.000000 0.000000
2.612645 -0.025000 0.997472 0.000033 0.005050
2.612645 0.025000 0.997472 -0.000033 0.005050
2.612645 0.087500 0.997482 -0.000099 0.005030
2.612645 0.165625 0.997511 -0.000180 0.004972
2.612645 0.263281 0.997570 -0.000276 0.004853
2.612645 0.385352 0.997678 -0.000382 0.004639
2.612645 0.537939 0.997854 -0.000489 0.004287
2.612645 0.728674 0.998119 -0.000580 0.003759
2.612645 0.967093 0.998480 -0.000632 0.003037
2.612645 1.265116 0.998927 -0.000635 0.002144
2.612645 1.637645 0.999436 -0.000602 0.001128
2.612645 2.103306 1.000000 0.000000 0.000000
3.078306 -0.025000 1.000000 -0.000000 0.000000
3.078306 0.025000 1.000000 0.000000 0.000000
3.078306 0.087500 1.000000 0.000000 0.000000
3.078306 0.165625 1.000000 0.000000 0.000000
3.078306 0.263281 1.000000 0.000000 0.000000
3.078306 0.385352 1.000000 0.000000 0.000000
3.078306 0.537939 1.000000 0.000000 0.000000
3.078306 0.728674 1.000000 0.000000 0.000000
3.078306 0.967093 1.000000 0.000000 0.000000
3.078306 1.265116 1.000000 0.000000 0.000000
3.078306 1.637645 1.000000 0.000000 0.000000
3.078306 2.103306 1.000000 0.000000 0.000000
